<?xml version="1.0" encoding="UTF-8"?>

<!-- generated on 2025-03-26 14:23:12 by Eclipse SUMO GUI Version 1.19.0
<configuration xmlns:xsi="http://www.w3.org/2001/XMLSchema-instance" xsi:noNamespaceSchemaLocation="http://sumo.dlr.de/xsd/sumoConfiguration.xsd">

    <input>
        <net-file value="../model/Network.net.xml"/>
        <route-files value="../model/Demand.rou.xml"/>
        <additional-files value="../model/Sensors.add.xml"/>
    </input>

    <output>
        <emission-output value="../model/logs/Emissions.xml"/>
        <summary-output value="../model/logs/Log_summary.xml"/>
        <summary-output.period value="300"/>
        <tripinfo-output value="../model/logs/TripInfos.xml"/>
    </output>

    <time>
        <begin value="0"/>
        <end value="10800"/>
        <step-length value="1"/>
    </time>

    <processing>
        <time-to-teleport value="-1"/>
    </processing>

    <report>
        <verbose value="true"/>
        <no-step-log value="true"/>
    </report>

    <emissions>
        <device.emissions.period value="10"/>
    </emissions>

    <traci_server>
        <remote-port value="55276"/>
    </traci_server>

    <gui_only>
        <quit-on-end value="true"/>
        <start value="true"/>
    </gui_only>

</configuration>
-->

<tripinfos xmlns:xsi="http://www.w3.org/2001/XMLSchema-instance" xsi:noNamespaceSchemaLocation="http://sumo.dlr.de/xsd/tripinfo_file.xsd">
    <tripinfo id="flow_0_car_aggr3_route_E1_A1_lane2.0" depart="0.00" departLane="29380609_2" departPos="5.10" departSpeed="0.00" departDelay="0.00" arrival="41.00" arrivalLane="A1_0" arrivalPos="11.57" arrivalSpeed="12.59" duration="41.00" routeLength="523.80" waitingTime="0.00" waitingCount="0" stopTime="0.00" timeLoss="10.46" rerouteNo="0" devices="tripinfo_flow_0_car_aggr3_route_E1_A1_lane2.0 emissions_flow_0_car_aggr3_route_E1_A1_lane2.0" vType="car_aggr3" speedFactor="0.96" vaporized="">
        <emissions CO_abs="2051.733412" CO2_abs="151179.403253" HC_abs="12.579470" PMx_abs="2.608947" NOx_abs="59.715080" fuel_abs="48219.251753" electricity_abs="0"/>
    </tripinfo>
    <tripinfo id="flow_0_car_aggr3_route_E3_A4_lane0.0" depart="5.00" departLane="294719471#2_0" departPos="5.10" departSpeed="0.00" departDelay="0.00" arrival="57.00" arrivalLane="107041762_0" arrivalPos="167.06" arrivalSpeed="12.67" duration="52.00" routeLength="700.91" waitingTime="0.00" waitingCount="0" stopTime="0.00" timeLoss="5.74" rerouteNo="0" devices="tripinfo_flow_0_car_aggr3_route_E3_A4_lane0.0 emissions_flow_0_car_aggr3_route_E3_A4_lane0.0" vType="car_aggr3" speedFactor="0.92" vaporized="">
        <emissions CO_abs="1977.247080" CO2_abs="176748.671330" HC_abs="12.803692" PMx_abs="2.787601" NOx_abs="67.392907" fuel_abs="56374.782820" electricity_abs="0"/>
    </tripinfo>
    <tripinfo id="flow_0_car_aggr1_route_E3_A4_lane0.0" depart="8.00" departLane="294719471#2_0" departPos="5.10" departSpeed="0.00" departDelay="2.00" arrival="67.00" arrivalLane="107041762_0" arrivalPos="167.06" arrivalSpeed="10.75" duration="59.00" routeLength="700.91" waitingTime="0.00" waitingCount="0" stopTime="0.00" timeLoss="8.05" rerouteNo="0" devices="tripinfo_flow_0_car_aggr1_route_E3_A4_lane0.0 emissions_flow_0_car_aggr1_route_E3_A4_lane0.0" vType="car_aggr1" speedFactor="0.82" vaporized="">
        <emissions CO_abs="2033.690768" CO2_abs="161039.404501" HC_abs="12.711577" PMx_abs="2.212666" NOx_abs="59.908890" fuel_abs="51364.670460" electricity_abs="0"/>
    </tripinfo>
    <tripinfo id="flow_0_car_aggr3_route_E3_A4_lane0.1" depart="12.00" departLane="294719471#2_0" departPos="5.10" departSpeed="0.00" departDelay="1.00" arrival="71.00" arrivalLane="107041762_0" arrivalPos="167.06" arrivalSpeed="12.55" duration="59.00" routeLength="700.91" waitingTime="0.00" waitingCount="0" stopTime="0.00" timeLoss="13.21" rerouteNo="0" devices="tripinfo_flow_0_car_aggr3_route_E3_A4_lane0.1 emissions_flow_0_car_aggr3_route_E3_A4_lane0.1" vType="car_aggr3" speedFactor="0.91" vaporized="">
        <emissions CO_abs="2304.536488" CO2_abs="167327.670592" HC_abs="14.223576" PMx_abs="2.654441" NOx_abs="65.332514" fuel_abs="53370.058211" electricity_abs="0"/>
    </tripinfo>
    <tripinfo id="flow_0_car_aggr5_route_E3_A4_lane0.0" depart="16.00" departLane="294719471#2_0" departPos="5.10" departSpeed="0.00" departDelay="2.00" arrival="74.00" arrivalLane="107041762_0" arrivalPos="167.06" arrivalSpeed="15.29" duration="58.00" routeLength="700.91" waitingTime="0.00" waitingCount="0" stopTime="0.00" timeLoss="22.59" rerouteNo="0" devices="tripinfo_flow_0_car_aggr5_route_E3_A4_lane0.0 emissions_flow_0_car_aggr5_route_E3_A4_lane0.0" vType="car_aggr5" speedFactor="1.19" vaporized="">
        <emissions CO_abs="2809.387505" CO2_abs="192146.712333" HC_abs="17.282557" PMx_abs="3.390509" NOx_abs="77.635192" fuel_abs="61285.939231" electricity_abs="0"/>
    </tripinfo>
    <tripinfo id="flow_0_car_aggr4_route_E5_AEnd_lane0.0" depart="12.00" departLane="114320572_0" departPos="5.10" departSpeed="0.00" departDelay="3.00" arrival="78.00" arrivalLane="34211542_1" arrivalPos="660.16" arrivalSpeed="17.96" duration="66.00" routeLength="972.69" waitingTime="0.00" waitingCount="0" stopTime="0.00" timeLoss="9.06" rerouteNo="0" devices="tripinfo_flow_0_car_aggr4_route_E5_AEnd_lane0.0 emissions_flow_0_car_aggr4_route_E5_AEnd_lane0.0" vType="car_aggr4" speedFactor="0.86" vaporized="">
        <emissions CO_abs="2392.208599" CO2_abs="220837.038880" HC_abs="15.268496" PMx_abs="3.349921" NOx_abs="81.505822" fuel_abs="70437.021633" electricity_abs="0"/>
    </tripinfo>
    <tripinfo id="flow_0_car_aggr4_route_E3_A4_lane0.0" depart="20.00" departLane="294719471#2_0" departPos="5.10" departSpeed="0.00" departDelay="4.00" arrival="79.00" arrivalLane="107041762_0" arrivalPos="167.06" arrivalSpeed="11.38" duration="59.00" routeLength="700.91" waitingTime="0.00" waitingCount="0" stopTime="0.00" timeLoss="11.66" rerouteNo="0" devices="tripinfo_flow_0_car_aggr4_route_E3_A4_lane0.0 emissions_flow_0_car_aggr4_route_E3_A4_lane0.0" vType="car_aggr4" speedFactor="0.88" vaporized="">
        <emissions CO_abs="2255.234429" CO2_abs="173679.755861" HC_abs="14.186928" PMx_abs="2.750685" NOx_abs="67.785793" fuel_abs="55396.034554" electricity_abs="0"/>
    </tripinfo>
    <tripinfo id="flow_0_car_aggr1_route_E5_AEnd_lane0.0" depart="9.00" departLane="114320572_0" departPos="5.10" departSpeed="0.00" departDelay="0.00" arrival="80.00" arrivalLane="34211542_0" arrivalPos="660.16" arrivalSpeed="16.88" duration="71.00" routeLength="972.69" waitingTime="0.00" waitingCount="0" stopTime="0.00" timeLoss="6.56" rerouteNo="0" devices="tripinfo_flow_0_car_aggr1_route_E5_AEnd_lane0.0 emissions_flow_0_car_aggr1_route_E5_AEnd_lane0.0" vType="car_aggr1" speedFactor="0.77" vaporized="">
        <emissions CO_abs="1933.075421" CO2_abs="209836.649235" HC_abs="12.800480" PMx_abs="2.734966" NOx_abs="75.696071" fuel_abs="66928.605245" electricity_abs="0"/>
    </tripinfo>
    <tripinfo id="flow_0_car_aggr5_route_E3_A4_lane0.1" depart="23.00" departLane="294719471#2_0" departPos="5.10" departSpeed="0.00" departDelay="7.00" arrival="83.00" arrivalLane="107041762_0" arrivalPos="167.06" arrivalSpeed="12.00" duration="60.00" routeLength="700.91" waitingTime="0.00" waitingCount="0" stopTime="0.00" timeLoss="11.47" rerouteNo="0" devices="tripinfo_flow_0_car_aggr5_route_E3_A4_lane0.1 emissions_flow_0_car_aggr5_route_E3_A4_lane0.1" vType="car_aggr5" speedFactor="0.87" vaporized="">
        <emissions CO_abs="2521.463967" CO2_abs="174651.644701" HC_abs="15.454765" PMx_abs="2.930021" NOx_abs="69.625480" fuel_abs="55705.955013" electricity_abs="0"/>
    </tripinfo>
    <tripinfo id="flow_0_car_aggr1_route_E5_AEnd_lane0.1" depart="20.00" departLane="114320572_0" departPos="5.10" departSpeed="0.00" departDelay="0.00" arrival="86.00" arrivalLane="34211542_1" arrivalPos="660.16" arrivalSpeed="18.97" duration="66.00" routeLength="972.69" waitingTime="0.00" waitingCount="0" stopTime="0.00" timeLoss="7.69" rerouteNo="0" devices="tripinfo_flow_0_car_aggr1_route_E5_AEnd_lane0.1 emissions_flow_0_car_aggr1_route_E5_AEnd_lane0.1" vType="car_aggr1" speedFactor="0.86" vaporized="">
        <emissions CO_abs="2278.079950" CO2_abs="223632.959059" HC_abs="15.116057" PMx_abs="3.378615" NOx_abs="82.978999" fuel_abs="71328.771681" electricity_abs="0"/>
    </tripinfo>
    <tripinfo id="flow_0_mot_aggr1_route_E3_A4_lane0.0" depart="30.00" departLane="294719471#2_0" departPos="2.30" departSpeed="0.00" departDelay="0.00" arrival="89.00" arrivalLane="107041762_0" arrivalPos="167.06" arrivalSpeed="12.16" duration="59.00" routeLength="703.71" waitingTime="0.00" waitingCount="0" stopTime="0.00" timeLoss="11.37" rerouteNo="0" devices="tripinfo_flow_0_mot_aggr1_route_E3_A4_lane0.0 emissions_flow_0_mot_aggr1_route_E3_A4_lane0.0" vType="mot_aggr1" speedFactor="0.89" vaporized="">
        <emissions CO_abs="4970.081139" CO2_abs="169516.018232" HC_abs="23.500003" PMx_abs="8.182895" NOx_abs="37.070325" fuel_abs="54073.931558" electricity_abs="0"/>
    </tripinfo>
    <tripinfo id="flow_0_car_aggr1_route_E1_A1_lane0.0" depart="40.00" departLane="29380609_0" departPos="5.10" departSpeed="0.00" departDelay="34.00" arrival="92.00" arrivalLane="A1_0" arrivalPos="11.57" arrivalSpeed="12.15" duration="52.00" routeLength="523.80" waitingTime="0.00" waitingCount="0" stopTime="0.00" timeLoss="14.42" rerouteNo="0" devices="tripinfo_flow_0_car_aggr1_route_E1_A1_lane0.0 emissions_flow_0_car_aggr1_route_E1_A1_lane0.0" vType="car_aggr1" speedFactor="0.79" vaporized="">
        <emissions CO_abs="3069.025131" CO2_abs="175058.127120" HC_abs="18.060328" PMx_abs="2.963671" NOx_abs="70.254190" fuel_abs="55835.928295" electricity_abs="0"/>
    </tripinfo>
    <tripinfo id="flow_0_car_aggr1_route_E4_A5_lane0.0" depart="14.00" departLane="113980043_0" departPos="5.10" departSpeed="0.00" departDelay="4.00" arrival="93.00" arrivalLane="33212385_0" arrivalPos="71.26" arrivalSpeed="10.74" duration="79.00" routeLength="969.13" waitingTime="0.00" waitingCount="0" stopTime="0.00" timeLoss="18.32" rerouteNo="0" devices="tripinfo_flow_0_car_aggr1_route_E4_A5_lane0.0 emissions_flow_0_car_aggr1_route_E4_A5_lane0.0" vType="car_aggr1" speedFactor="0.83" vaporized="">
        <emissions CO_abs="3511.404501" CO2_abs="253814.997118" HC_abs="21.396001" PMx_abs="3.934796" NOx_abs="96.835915" fuel_abs="80955.781356" electricity_abs="0"/>
    </tripinfo>
    <tripinfo id="flow_0_car_aggr5_route_E2_A3_lane0.0" depart="20.00" departLane="237823368_0" departPos="5.10" departSpeed="0.00" departDelay="0.00" arrival="99.00" arrivalLane="A3_0" arrivalPos="8.82" arrivalSpeed="9.50" duration="79.00" routeLength="935.19" waitingTime="0.00" waitingCount="0" stopTime="0.00" timeLoss="6.39" rerouteNo="0" devices="tripinfo_flow_0_car_aggr5_route_E2_A3_lane0.0 emissions_flow_0_car_aggr5_route_E2_A3_lane0.0" vType="car_aggr5" speedFactor="0.75" vaporized="">
        <emissions CO_abs="2603.240418" CO2_abs="215955.756066" HC_abs="16.514902" PMx_abs="3.242060" NOx_abs="82.807517" fuel_abs="68880.220985" electricity_abs="0"/>
    </tripinfo>
    <tripinfo id="flow_0_mot_aggr2_route_E3_A4_lane0.0" depart="45.00" departLane="294719471#2_0" departPos="2.30" departSpeed="0.00" departDelay="0.00" arrival="101.00" arrivalLane="107041762_0" arrivalPos="167.06" arrivalSpeed="11.37" duration="56.00" routeLength="703.71" waitingTime="0.00" waitingCount="0" stopTime="0.00" timeLoss="12.92" rerouteNo="0" devices="tripinfo_flow_0_mot_aggr2_route_E3_A4_lane0.0 emissions_flow_0_mot_aggr2_route_E3_A4_lane0.0" vType="mot_aggr2" speedFactor="0.96" vaporized="">
        <emissions CO_abs="5429.617028" CO2_abs="182895.627929" HC_abs="25.630286" PMx_abs="8.930634" NOx_abs="39.740448" fuel_abs="58341.750048" electricity_abs="0"/>
    </tripinfo>
    <tripinfo id="flow_0_car_aggr4_route_E5_AEnd_lane0.1" depart="34.00" departLane="114320572_0" departPos="5.10" departSpeed="0.00" departDelay="0.00" arrival="102.00" arrivalLane="34211542_0" arrivalPos="660.16" arrivalSpeed="17.45" duration="68.00" routeLength="972.69" waitingTime="0.00" waitingCount="0" stopTime="0.00" timeLoss="5.12" rerouteNo="0" devices="tripinfo_flow_0_car_aggr4_route_E5_AEnd_lane0.1 emissions_flow_0_car_aggr4_route_E5_AEnd_lane0.1" vType="car_aggr4" speedFactor="0.79" vaporized="">
        <emissions CO_abs="2157.507189" CO2_abs="213075.105096" HC_abs="14.188502" PMx_abs="3.227604" NOx_abs="79.921684" fuel_abs="67961.168476" electricity_abs="0"/>
    </tripinfo>
    <tripinfo id="flow_0_mot_aggr5_route_E4b_AEnd_lane1.0" depart="3.00" departLane="134575595#3_1" departPos="2.30" departSpeed="0.00" departDelay="1.00" arrival="104.00" arrivalLane="34211542_2" arrivalPos="660.16" arrivalSpeed="25.13" duration="101.00" routeLength="2026.46" waitingTime="0.00" waitingCount="0" stopTime="0.00" timeLoss="17.94" rerouteNo="0" devices="tripinfo_flow_0_mot_aggr5_route_E4b_AEnd_lane1.0 emissions_flow_0_mot_aggr5_route_E4b_AEnd_lane1.0" vType="mot_aggr5" speedFactor="1.18" vaporized="">
        <emissions CO_abs="20944.874958" CO2_abs="616644.835123" HC_abs="98.268089" PMx_abs="34.961455" NOx_abs="123.473105" fuel_abs="196701.962542" electricity_abs="0"/>
    </tripinfo>
    <tripinfo id="flow_0_car_aggr3_route_E5_AEnd_lane0.0" depart="48.00" departLane="114320572_0" departPos="5.10" departSpeed="0.00" departDelay="0.00" arrival="105.00" arrivalLane="34211542_1" arrivalPos="660.16" arrivalSpeed="20.62" duration="57.00" routeLength="972.69" waitingTime="0.00" waitingCount="0" stopTime="0.00" timeLoss="5.91" rerouteNo="0" devices="tripinfo_flow_0_car_aggr3_route_E5_AEnd_lane0.0 emissions_flow_0_car_aggr3_route_E5_AEnd_lane0.0" vType="car_aggr3" speedFactor="0.98" vaporized="">
        <emissions CO_abs="2408.364882" CO2_abs="231496.462545" HC_abs="15.854554" PMx_abs="3.859823" NOx_abs="86.384823" fuel_abs="73836.587537" electricity_abs="0"/>
    </tripinfo>
    <tripinfo id="flow_0_car_aggr1_route_E1_A1_lane1.0" depart="53.00" departLane="29380609_1" departPos="5.10" departSpeed="0.00" departDelay="52.00" arrival="112.00" arrivalLane="A1_0" arrivalPos="11.57" arrivalSpeed="12.12" duration="59.00" routeLength="523.80" waitingTime="5.00" waitingCount="2" stopTime="0.00" timeLoss="22.53" rerouteNo="0" devices="tripinfo_flow_0_car_aggr1_route_E1_A1_lane1.0 emissions_flow_0_car_aggr1_route_E1_A1_lane1.0" vType="car_aggr1" speedFactor="0.82" vaporized="">
        <emissions CO_abs="4050.895516" CO2_abs="186460.992411" HC_abs="22.751617" PMx_abs="3.281641" NOx_abs="75.682797" fuel_abs="59473.304087" electricity_abs="0"/>
    </tripinfo>
    <tripinfo id="flow_0_car_aggr5_route_E5_AEnd_lane0.0" depart="67.00" departLane="114320572_0" departPos="5.10" departSpeed="0.00" departDelay="0.00" arrival="112.00" arrivalLane="34211542_1" arrivalPos="660.16" arrivalSpeed="27.33" duration="45.00" routeLength="972.69" waitingTime="0.00" waitingCount="0" stopTime="0.00" timeLoss="6.12" rerouteNo="0" devices="tripinfo_flow_0_car_aggr5_route_E5_AEnd_lane0.0 emissions_flow_0_car_aggr5_route_E5_AEnd_lane0.0" vType="car_aggr5" speedFactor="1.28" vaporized="">
        <emissions CO_abs="4363.698295" CO2_abs="301788.197721" HC_abs="27.188309" PMx_abs="6.426266" NOx_abs="120.440053" fuel_abs="96255.890352" electricity_abs="0"/>
    </tripinfo>
    <tripinfo id="flow_0_car_aggr1_route_E4_A5_lane0.1" depart="36.00" departLane="113980043_0" departPos="5.10" departSpeed="0.00" departDelay="0.00" arrival="113.00" arrivalLane="33212385_0" arrivalPos="71.26" arrivalSpeed="11.77" duration="77.00" routeLength="969.13" waitingTime="0.00" waitingCount="0" stopTime="0.00" timeLoss="18.87" rerouteNo="0" devices="tripinfo_flow_0_car_aggr1_route_E4_A5_lane0.1 emissions_flow_0_car_aggr1_route_E4_A5_lane0.1" vType="car_aggr1" speedFactor="0.87" vaporized="">
        <emissions CO_abs="3331.248294" CO2_abs="254519.334050" HC_abs="20.725101" PMx_abs="4.198805" NOx_abs="100.011594" fuel_abs="81180.014027" electricity_abs="0"/>
    </tripinfo>
    <tripinfo id="flow_0_car_aggr3_route_E1_A1_lane1.0" depart="66.00" departLane="29380609_1" departPos="5.10" departSpeed="0.00" departDelay="65.00" arrival="116.00" arrivalLane="A1_0" arrivalPos="11.57" arrivalSpeed="14.89" duration="50.00" routeLength="523.80" waitingTime="0.00" waitingCount="0" stopTime="0.00" timeLoss="18.45" rerouteNo="0" devices="tripinfo_flow_0_car_aggr3_route_E1_A1_lane1.0 emissions_flow_0_car_aggr3_route_E1_A1_lane1.0" vType="car_aggr3" speedFactor="0.95" vaporized="">
        <emissions CO_abs="2466.098390" CO2_abs="153224.458229" HC_abs="14.790348" PMx_abs="2.618339" NOx_abs="61.849962" fuel_abs="48871.750734" electricity_abs="0"/>
    </tripinfo>
    <tripinfo id="flow_0_car_aggr5_route_E2_A4_lane0.0" depart="4.00" departLane="237823368_0" departPos="5.10" departSpeed="0.00" departDelay="0.00" arrival="118.00" arrivalLane="107041762_0" arrivalPos="167.06" arrivalSpeed="11.41" duration="114.00" routeLength="1747.46" waitingTime="0.00" waitingCount="0" stopTime="0.00" timeLoss="8.16" rerouteNo="0" devices="tripinfo_flow_0_car_aggr5_route_E2_A4_lane0.0 emissions_flow_0_car_aggr5_route_E2_A4_lane0.0" vType="car_aggr5" speedFactor="0.85" vaporized="">
        <emissions CO_abs="3368.045126" CO2_abs="366994.042300" HC_abs="23.269547" PMx_abs="5.737983" NOx_abs="138.209848" fuel_abs="117053.997994" electricity_abs="0"/>
    </tripinfo>
    <tripinfo id="flow_0_car_aggr3_route_E5_AEnd_lane0.1" depart="61.00" departLane="114320572_0" departPos="5.10" departSpeed="0.00" departDelay="0.00" arrival="118.00" arrivalLane="34211542_0" arrivalPos="660.16" arrivalSpeed="19.86" duration="57.00" routeLength="972.69" waitingTime="0.00" waitingCount="0" stopTime="0.00" timeLoss="5.02" rerouteNo="0" devices="tripinfo_flow_0_car_aggr3_route_E5_AEnd_lane0.1 emissions_flow_0_car_aggr3_route_E5_AEnd_lane0.1" vType="car_aggr3" speedFactor="0.95" vaporized="">
        <emissions CO_abs="2278.964823" CO2_abs="223103.330660" HC_abs="15.037276" PMx_abs="3.748843" NOx_abs="84.075197" fuel_abs="71159.498245" electricity_abs="0"/>
    </tripinfo>
    <tripinfo id="flow_0_car_aggr2_route_E4_A5_lane0.0" depart="42.00" departLane="113980043_0" departPos="5.10" departSpeed="0.00" departDelay="0.00" arrival="119.00" arrivalLane="33212385_0" arrivalPos="71.26" arrivalSpeed="12.44" duration="77.00" routeLength="969.13" waitingTime="0.00" waitingCount="0" stopTime="0.00" timeLoss="20.82" rerouteNo="0" devices="tripinfo_flow_0_car_aggr2_route_E4_A5_lane0.0 emissions_flow_0_car_aggr2_route_E4_A5_lane0.0" vType="car_aggr2" speedFactor="0.90" vaporized="">
        <emissions CO_abs="3144.187905" CO2_abs="226002.851793" HC_abs="19.117083" PMx_abs="3.836066" NOx_abs="89.322164" fuel_abs="72084.520904" electricity_abs="0"/>
    </tripinfo>
    <tripinfo id="flow_0_car_aggr3_route_E2_A4_lane0.0" depart="11.00" departLane="237823368_0" departPos="5.10" departSpeed="0.00" departDelay="1.00" arrival="122.00" arrivalLane="107041762_0" arrivalPos="167.06" arrivalSpeed="13.19" duration="111.00" routeLength="1747.46" waitingTime="0.00" waitingCount="0" stopTime="0.00" timeLoss="21.46" rerouteNo="0" devices="tripinfo_flow_0_car_aggr3_route_E2_A4_lane0.0 emissions_flow_0_car_aggr3_route_E2_A4_lane0.0" vType="car_aggr3" speedFactor="1.00" vaporized="">
        <emissions CO_abs="4363.136919" CO2_abs="387067.938052" HC_abs="28.366228" PMx_abs="6.608840" NOx_abs="148.132444" fuel_abs="123456.585666" electricity_abs="0"/>
    </tripinfo>
    <tripinfo id="flow_0_car_aggr1_route_E1_A1_lane0.1" depart="63.00" departLane="29380609_0" departPos="5.10" departSpeed="0.00" departDelay="55.00" arrival="123.00" arrivalLane="A1_0" arrivalPos="11.57" arrivalSpeed="13.00" duration="60.00" routeLength="523.80" waitingTime="0.00" waitingCount="0" stopTime="0.00" timeLoss="24.17" rerouteNo="0" devices="tripinfo_flow_0_car_aggr1_route_E1_A1_lane0.1 emissions_flow_0_car_aggr1_route_E1_A1_lane0.1" vType="car_aggr1" speedFactor="0.81" vaporized="">
        <emissions CO_abs="2990.189466" CO2_abs="156708.497726" HC_abs="17.069142" PMx_abs="2.204197" NOx_abs="60.028633" fuel_abs="49983.844645" electricity_abs="0"/>
    </tripinfo>
    <tripinfo id="flow_0_car_aggr4_route_E4b_AEnd_lane1.0" depart="10.00" departLane="134575595#3_1" departPos="5.10" departSpeed="0.00" departDelay="0.00" arrival="124.00" arrivalLane="34211542_2" arrivalPos="660.16" arrivalSpeed="20.81" duration="114.00" routeLength="2023.66" waitingTime="0.00" waitingCount="0" stopTime="0.00" timeLoss="14.99" rerouteNo="0" devices="tripinfo_flow_0_car_aggr4_route_E4b_AEnd_lane1.0 emissions_flow_0_car_aggr4_route_E4b_AEnd_lane1.0" vType="car_aggr4" speedFactor="0.98" vaporized="">
        <emissions CO_abs="4947.540991" CO2_abs="456149.359662" HC_abs="32.520192" PMx_abs="7.934808" NOx_abs="172.771604" fuel_abs="145490.282565" electricity_abs="0"/>
    </tripinfo>
    <tripinfo id="flow_0_car_aggr2_route_E4b_AEnd_lane1.0" depart="4.00" departLane="134575595#3_1" departPos="5.10" departSpeed="0.00" departDelay="1.00" arrival="125.00" arrivalLane="34211542_0" arrivalPos="660.16" arrivalSpeed="20.26" duration="121.00" routeLength="2023.66" waitingTime="0.00" waitingCount="0" stopTime="0.00" timeLoss="16.42" rerouteNo="0" devices="tripinfo_flow_0_car_aggr2_route_E4b_AEnd_lane1.0 emissions_flow_0_car_aggr2_route_E4b_AEnd_lane1.0" vType="car_aggr2" speedFactor="0.93" vaporized="">
        <emissions CO_abs="4350.119966" CO2_abs="418261.812234" HC_abs="28.673959" PMx_abs="6.780657" NOx_abs="154.714064" fuel_abs="133406.258334" electricity_abs="0"/>
    </tripinfo>
    <tripinfo id="flow_0_car_aggr4_route_E1_A1_lane0.0" depart="71.00" departLane="29380609_0" departPos="5.10" departSpeed="0.00" departDelay="63.00" arrival="127.00" arrivalLane="A1_0" arrivalPos="11.57" arrivalSpeed="13.92" duration="56.00" routeLength="523.80" waitingTime="0.00" waitingCount="0" stopTime="0.00" timeLoss="23.73" rerouteNo="0" devices="tripinfo_flow_0_car_aggr4_route_E1_A1_lane0.0 emissions_flow_0_car_aggr4_route_E1_A1_lane0.0" vType="car_aggr4" speedFactor="0.91" vaporized="">
        <emissions CO_abs="2391.432971" CO2_abs="143688.769534" HC_abs="14.144771" PMx_abs="2.071764" NOx_abs="55.555198" fuel_abs="45830.773463" electricity_abs="0"/>
    </tripinfo>
    <tripinfo id="flow_0_car_aggr5_route_E3_A4_lane0.2" depart="71.00" departLane="294719471#2_0" departPos="5.10" departSpeed="0.00" departDelay="0.00" arrival="127.00" arrivalLane="107041762_0" arrivalPos="167.06" arrivalSpeed="11.91" duration="56.00" routeLength="700.91" waitingTime="0.00" waitingCount="0" stopTime="0.00" timeLoss="9.08" rerouteNo="0" devices="tripinfo_flow_0_car_aggr5_route_E3_A4_lane0.2 emissions_flow_0_car_aggr5_route_E3_A4_lane0.2" vType="car_aggr5" speedFactor="0.89" vaporized="">
        <emissions CO_abs="2387.374321" CO2_abs="190666.359189" HC_abs="15.097419" PMx_abs="3.077716" NOx_abs="74.230892" fuel_abs="60813.890557" electricity_abs="0"/>
    </tripinfo>
    <tripinfo id="flow_0_car_aggr5_route_E4_A5_lane0.0" depart="75.00" departLane="113980043_0" departPos="5.10" departSpeed="0.00" departDelay="0.00" arrival="136.00" arrivalLane="33212385_0" arrivalPos="71.26" arrivalSpeed="12.31" duration="61.00" routeLength="969.13" waitingTime="0.00" waitingCount="0" stopTime="0.00" timeLoss="6.40" rerouteNo="0" devices="tripinfo_flow_0_car_aggr5_route_E4_A5_lane0.0 emissions_flow_0_car_aggr5_route_E4_A5_lane0.0" vType="car_aggr5" speedFactor="0.93" vaporized="">
        <emissions CO_abs="2597.831336" CO2_abs="238683.123254" HC_abs="17.066098" PMx_abs="4.116111" NOx_abs="92.188176" fuel_abs="76128.608888" electricity_abs="0"/>
    </tripinfo>
    <tripinfo id="flow_0_car_aggr2_route_E2_A4_lane0.0" depart="8.00" departLane="237823368_0" departPos="5.10" departSpeed="0.00" departDelay="0.00" arrival="139.00" arrivalLane="107041762_0" arrivalPos="167.06" arrivalSpeed="9.59" duration="131.00" routeLength="1747.46" waitingTime="0.00" waitingCount="0" stopTime="0.00" timeLoss="13.32" rerouteNo="0" devices="tripinfo_flow_0_car_aggr2_route_E2_A4_lane0.0 emissions_flow_0_car_aggr2_route_E2_A4_lane0.0" vType="car_aggr2" speedFactor="0.77" vaporized="">
        <emissions CO_abs="3765.690269" CO2_abs="370249.842081" HC_abs="24.880017" PMx_abs="5.405644" NOx_abs="138.169443" fuel_abs="118092.946886" electricity_abs="0"/>
    </tripinfo>
    <tripinfo id="flow_0_car_aggr3_route_E4b_AEnd_lane1.0" depart="1.00" departLane="134575595#3_1" departPos="5.10" departSpeed="0.00" departDelay="0.00" arrival="144.00" arrivalLane="34211542_0" arrivalPos="660.16" arrivalSpeed="14.95" duration="143.00" routeLength="2023.66" waitingTime="0.00" waitingCount="0" stopTime="0.00" timeLoss="9.05" rerouteNo="0" devices="tripinfo_flow_0_car_aggr3_route_E4b_AEnd_lane1.0 emissions_flow_0_car_aggr3_route_E4b_AEnd_lane1.0" vType="car_aggr3" speedFactor="0.73" vaporized="">
        <emissions CO_abs="2951.127747" CO2_abs="383225.839399" HC_abs="20.850540" PMx_abs="5.064196" NOx_abs="138.567214" fuel_abs="122231.732276" electricity_abs="0"/>
    </tripinfo>
    <tripinfo id="flow_0_car_aggr4_route_E4b_AEnd_lane1.1" depart="15.00" departLane="134575595#3_1" departPos="5.10" departSpeed="0.00" departDelay="0.00" arrival="145.00" arrivalLane="34211542_1" arrivalPos="660.16" arrivalSpeed="18.13" duration="130.00" routeLength="2023.66" waitingTime="0.00" waitingCount="0" stopTime="0.00" timeLoss="12.02" rerouteNo="0" devices="tripinfo_flow_0_car_aggr4_route_E4b_AEnd_lane1.1 emissions_flow_0_car_aggr4_route_E4b_AEnd_lane1.1" vType="car_aggr4" speedFactor="0.82" vaporized="">
        <emissions CO_abs="3746.082551" CO2_abs="393695.255355" HC_abs="25.347305" PMx_abs="6.162068" NOx_abs="147.503565" fuel_abs="125570.495248" electricity_abs="0"/>
    </tripinfo>
    <tripinfo id="flow_0_car_aggr1_route_E2_A4_lane0.0" depart="23.00" departLane="237823368_0" departPos="5.10" departSpeed="0.00" departDelay="2.00" arrival="148.00" arrivalLane="107041762_0" arrivalPos="167.06" arrivalSpeed="12.01" duration="125.00" routeLength="1747.46" waitingTime="0.00" waitingCount="0" stopTime="0.00" timeLoss="23.06" rerouteNo="0" devices="tripinfo_flow_0_car_aggr1_route_E2_A4_lane0.0 emissions_flow_0_car_aggr1_route_E2_A4_lane0.0" vType="car_aggr1" speedFactor="0.89" vaporized="">
        <emissions CO_abs="4580.283906" CO2_abs="415569.144473" HC_abs="29.843519" PMx_abs="6.472051" NOx_abs="157.017396" fuel_abs="132547.633167" electricity_abs="0"/>
    </tripinfo>
    <tripinfo id="flow_0_car_aggr5_route_E1_A1_lane1.0" depart="103.00" departLane="29380609_1" departPos="5.10" departSpeed="0.00" departDelay="101.00" arrival="153.00" arrivalLane="A1_0" arrivalPos="11.57" arrivalSpeed="11.95" duration="50.00" routeLength="523.80" waitingTime="1.00" waitingCount="1" stopTime="0.00" timeLoss="13.59" rerouteNo="0" devices="tripinfo_flow_0_car_aggr5_route_E1_A1_lane1.0 emissions_flow_0_car_aggr5_route_E1_A1_lane1.0" vType="car_aggr5" speedFactor="0.81" vaporized="">
        <emissions CO_abs="3979.024119" CO2_abs="233769.820874" HC_abs="23.685679" PMx_abs="4.551750" NOx_abs="98.248416" fuel_abs="74561.605064" electricity_abs="0"/>
    </tripinfo>
    <tripinfo id="flow_0_car_aggr1_route_E5_AEnd_lane0.2" depart="79.00" departLane="114320572_0" departPos="5.10" departSpeed="0.00" departDelay="0.00" arrival="153.00" arrivalLane="34211542_2" arrivalPos="660.16" arrivalSpeed="16.35" duration="74.00" routeLength="972.69" waitingTime="0.00" waitingCount="0" stopTime="0.00" timeLoss="9.14" rerouteNo="0" devices="tripinfo_flow_0_car_aggr1_route_E5_AEnd_lane0.2 emissions_flow_0_car_aggr1_route_E5_AEnd_lane0.2" vType="car_aggr1" speedFactor="0.77" vaporized="">
        <emissions CO_abs="2445.856999" CO2_abs="228305.624218" HC_abs="15.670235" PMx_abs="3.243902" NOx_abs="84.667876" fuel_abs="72819.304304" electricity_abs="0"/>
    </tripinfo>
    <tripinfo id="flow_0_car_aggr3_route_E2_A4_lane0.1" depart="36.00" departLane="237823368_0" departPos="5.10" departSpeed="0.00" departDelay="0.00" arrival="155.00" arrivalLane="107041762_0" arrivalPos="167.06" arrivalSpeed="11.41" duration="119.00" routeLength="1747.46" waitingTime="0.00" waitingCount="0" stopTime="0.00" timeLoss="12.88" rerouteNo="0" devices="tripinfo_flow_0_car_aggr3_route_E2_A4_lane0.1 emissions_flow_0_car_aggr3_route_E2_A4_lane0.1" vType="car_aggr3" speedFactor="0.85" vaporized="">
        <emissions CO_abs="3584.510288" CO2_abs="370782.898480" HC_abs="24.136374" PMx_abs="5.566400" NOx_abs="137.446257" fuel_abs="118262.780525" electricity_abs="0"/>
    </tripinfo>
    <tripinfo id="flow_0_car_aggr3_route_E5_AEnd_lane0.2" depart="86.00" departLane="114320572_0" departPos="5.10" departSpeed="0.00" departDelay="0.00" arrival="156.00" arrivalLane="34211542_2" arrivalPos="660.16" arrivalSpeed="21.00" duration="70.00" routeLength="972.69" waitingTime="0.00" waitingCount="0" stopTime="0.00" timeLoss="20.07" rerouteNo="0" devices="tripinfo_flow_0_car_aggr3_route_E5_AEnd_lane0.2 emissions_flow_0_car_aggr3_route_E5_AEnd_lane0.2" vType="car_aggr3" speedFactor="1.00" vaporized="">
        <emissions CO_abs="5995.756772" CO2_abs="406326.013084" HC_abs="37.098098" PMx_abs="8.400569" NOx_abs="172.033473" fuel_abs="129597.935408" electricity_abs="0"/>
    </tripinfo>
    <tripinfo id="flow_0_car_aggr3_route_E5_AEnd_lane0.3" depart="89.00" departLane="114320572_0" departPos="5.10" departSpeed="0.00" departDelay="0.00" arrival="159.00" arrivalLane="34211542_2" arrivalPos="660.16" arrivalSpeed="20.72" duration="70.00" routeLength="972.69" waitingTime="0.00" waitingCount="0" stopTime="0.00" timeLoss="19.21" rerouteNo="0" devices="tripinfo_flow_0_car_aggr3_route_E5_AEnd_lane0.3 emissions_flow_0_car_aggr3_route_E5_AEnd_lane0.3" vType="car_aggr3" speedFactor="0.97" vaporized="">
        <emissions CO_abs="5738.084372" CO2_abs="385737.278845" HC_abs="35.389604" PMx_abs="7.853973" NOx_abs="162.626103" fuel_abs="123031.288366" electricity_abs="0"/>
    </tripinfo>